<?xml version="1.0" encoding="UTF-8"?>

<!-- generated on Sun Oct  7 15:22:25 2018 by SUMO Version 0.32.0
<?xml version="1.0" encoding="UTF-8"?>

<configuration xmlns:xsi="http://www.w3.org/2001/XMLSchema-instance" xsi:noNamespaceSchemaLocation="http://sumo.dlr.de/xsd/sumoConfiguration.xsd">

    <input>
        <net-file value="data/sq.net.xml"/>
        <route-files value="data/sq.rou.xml"/>
        <additional-files value="data/sq.det.xml"/>
    </input>

    <output>
        <tripinfo-output value="tripinfo.xml"/>
    </output>

    <time>
        <begin value="0"/>
    </time>

    <report>
        <verbose value="true"/>
        <no-step-log value="true"/>
    </report>

    <traci_server>
        <remote-port value="43483"/>
    </traci_server>

</configuration>
-->

<detector xmlns:xsi="http://www.w3.org/2001/XMLSchema-instance" xsi:noNamespaceSchemaLocation="http://sumo.dlr.de/xsd/det_e1_file.xsd">
    <interval begin="0.00" end="3600.00" id="0" nVehContrib="108" flow="108.00" occupancy="2.72" speed="9.15" length="7.00" nVehEntered="108"/>
    <interval begin="3600.00" end="3679.00" id="0" nVehContrib="1" flow="45.57" occupancy="0.90" speed="9.84" length="7.00" nVehEntered="1"/>
</detector>
